Program Version,EnergyPlus, Version 8.7.0-78a111df4a, YMD=2017.07.24 13:16
1,5,Environment Title[],Latitude[deg],Longitude[deg],Time Zone[],Elevation[m]
2,6,Day of Simulation[],Month[],Day of Month[],DST Indicator[1=yes 0=no],Hour[],StartMinute[],EndMinute[],DayType
3,3,Cumulative Day of Simulation[],Month[],Day of Month[],DST Indicator[1=yes 0=no],DayType  ! When Daily Report Variables Requested
4,2,Cumulative Days of Simulation[],Month[]  ! When Monthly Report Variables Requested
5,1,Cumulative Days of Simulation[] ! When Run Period Report Variables Requested
6,1,Environment,Site Outdoor Air Drybulb Temperature [C] !Hourly
7,1,Environment,Site Wind Speed [m/s] !Hourly
8,1,Environment,Site Wind Direction [deg] !Hourly
9,1,Environment,Site Day Type Index [] !Hourly
102,1,ZN1,Zone Mean Radiant Temperature [C] !Hourly
103,1,ZN1,Zone Mean Air Temperature [C] !Hourly
104,1,ZN1,Zone Operative Temperature [C] !Hourly
105,1,ZN1_PAR1_JAN,AFN Surface Venting Window or Door Opening Factor [] !Hourly
106,1,ZN1_PAR4_JAN,AFN Surface Venting Window or Door Opening Factor [] !Hourly
107,1,ZN1,AFN Zone Infiltration Volume [m3] !Hourly
108,1,ZN1,AFN Zone Infiltration Air Change Rate [ach] !Hourly
181,1,ZN1,Zone Thermostat Air Temperature [C] !Hourly
182,1,ZN1,Availability Manager Hybrid Ventilation Control Status [] !Hourly
183,1,ZN1,Availability Manager Hybrid Ventilation Control Mode [] !Hourly
277,1,OCCUPANCY,Zone Thermal Comfort ASHRAE 55 Adaptive Model 80% Acceptability Status [] !Hourly
278,1,OCCUPANCY,Zone Thermal Comfort ASHRAE 55 Adaptive Model Running Average Outdoor Air Temperature [C] !Hourly
341,1,ZN1 IDEAL LOADS AIR SYSTEM,Zone Ideal Loads Supply Air Total Heating Rate [W] !Hourly
342,1,ZN1 IDEAL LOADS AIR SYSTEM,Zone Ideal Loads Supply Air Total Cooling Rate [W] !Hourly
744,1,Site,Environmental Impact Total CO2 Emissions Carbon Equivalent Mass [kg] !Hourly
12,1,Electricity:Facility [J] !Hourly
312,1,DistrictCooling:Facility [J] !Hourly
281,1,DistrictHeating:Facility [J] !Hourly
366,1,CO2:Facility [kg] !Hourly
387,1,CO:Facility [kg] !Hourly
408,1,CH4:Facility [kg] !Hourly
429,1,NOx:Facility [kg] !Hourly
450,1,N2O:Facility [kg] !Hourly
471,1,SO2:Facility [kg] !Hourly
492,1,PM:Facility [kg] !Hourly
513,1,PM10:Facility [kg] !Hourly
534,1,PM2.5:Facility [kg] !Hourly
555,1,NH3:Facility [kg] !Hourly
576,1,NMVOC:Facility [kg] !Hourly
597,1,Hg:Facility [kg] !Hourly
618,1,Pb:Facility [kg] !Hourly
639,1,WaterEnvironmentalFactors:Facility [L] !Hourly
660,1,Nuclear High:Facility [kg] !Hourly
681,1,Nuclear Low:Facility [m3] !Hourly
724,1,Carbon Equivalent:Facility [kg] !Hourly
End of Data Dictionary
1,RUN PERIOD 1, -23.85, -46.64,  -3.00, 792.00
2,1, 1, 1, 0, 1, 0.00,60.00,Sunday
6,22.3875
7,2.3375
8,144.875
102,29.566510641787674
103,28.94739624331575
104,29.256953442551713
278,13.653223087814395
9,1.0
277,-1.0
105,0.0
106,0.0
107,36.682945636389657
108,0.339656904040645
181,28.94739624331575
341,0.0
342,0.0
744,0.0
182,0.0
183,0.0
12,0.0
281,0.0
312,0.0
366,0.0
387,0.0
408,0.0
429,0.0
450,0.0
471,0.0
492,0.0
513,0.0
534,0.0
555,0.0
576,0.0
597,0.0
618,0.0
639,0.0
660,0.0
681,0.0
724,0.0
2,1, 1, 1, 0, 2, 0.00,60.00,Sunday
6,22.549999999999998
7,1.525
8,151.0
102,29.428297434685218
103,29.02977630615937
104,29.22903687042229
278,13.653223087814395
9,1.0
277,-1.0
105,0.0
106,0.0
107,16.84437135364879
108,0.155966401422674
181,29.02977630615937
341,0.0
342,0.0
744,0.0
182,0.0
183,0.0
12,0.0
281,0.0
312,0.0
366,0.0
387,0.0
408,0.0
429,0.0
450,0.0
471,0.0
492,0.0
513,0.0
534,0.0
555,0.0
576,0.0
597,0.0
618,0.0
639,0.0
660,0.0
681,0.0
724,0.0
2,1, 1, 1, 0, 3, 0.00,60.00,Sunday
6,22.2125
7,1.6625
8,144.375
102,29.151101975147925
103,28.720319876601935
104,28.93571092587493
278,13.653223087814395
9,1.0
277,-1.0
105,0.0
106,0.0
107,20.79101860252206
108,0.19250943150483394
181,28.720319876601935
341,0.0
342,0.0
744,0.0
182,0.0
183,0.0
12,0.0
281,0.0
312,0.0
366,0.0
387,0.0
408,0.0
429,0.0
450,0.0
471,0.0
492,0.0
513,0.0
534,0.0
555,0.0
576,0.0
597,0.0
618,0.0
639,0.0
660,0.0
681,0.0
724,0.0
2,1, 1, 1, 0, 4, 0.00,60.00,Sunday
6,21.975
7,1.6375000000000002
8,149.625
102,28.868499822208976
103,28.45045645018947
104,28.659478136199224
278,13.653223087814395
9,1.0
277,-1.0
105,0.0
106,0.0
107,18.455354330922753
108,0.170882910471507
181,28.45045645018947
341,0.0
342,0.0
744,0.0
182,0.0
183,0.0
12,0.0
281,0.0
312,0.0
366,0.0
387,0.0
408,0.0
429,0.0
450,0.0
471,0.0
492,0.0
513,0.0
534,0.0
555,0.0
576,0.0
597,0.0
618,0.0
639,0.0
660,0.0
681,0.0
724,0.0
2,1, 1, 1, 0, 5, 0.00,60.00,Sunday
6,21.775
7,1.475
8,149.875
102,28.60415810345372
103,28.20369208666695
104,28.403925095060339
278,13.653223087814395
9,1.0
277,-1.0
105,0.0
106,0.0
107,16.685425126606078
108,0.15449467709820445
181,28.20369208666695
341,0.0
342,0.0
744,0.0
182,0.0
183,0.0
12,0.0
281,0.0
312,0.0
366,0.0
387,0.0
408,0.0
429,0.0
450,0.0
471,0.0
492,0.0
513,0.0
534,0.0
555,0.0
576,0.0
597,0.0
618,0.0
639,0.0
660,0.0
681,0.0
724,0.0
2,1, 1, 1, 0, 6, 0.00,60.00,Sunday
6,21.824999999999997
7,1.9000000000000002
8,137.375
102,28.493523029637893
103,27.991911779933216
104,28.24271740478555
278,13.653223087814395
9,1.0
277,-1.0
105,0.0
106,0.0
107,28.59524030342711
108,0.2647707435502511
181,27.991911779933216
341,0.0
342,0.0
744,0.0
182,0.0
183,0.0
12,0.0
281,0.0
312,0.0
366,0.0
387,0.0
408,0.0
429,0.0
450,0.0
471,0.0
492,0.0
513,0.0
534,0.0
555,0.0
576,0.0
597,0.0
618,0.0
639,0.0
660,0.0
681,0.0
724,0.0
2,1, 1, 1, 0, 7, 0.00,60.00,Sunday
6,22.275
7,2.3249999999999999
8,129.125
102,28.90523946854079
103,28.282373243742979
104,28.593806356141884
278,13.653223087814395
9,1.0
277,-1.0
105,0.0
106,0.0
107,41.60692829099425
108,0.38524933602772457
181,28.282373243742979
341,0.0
342,0.0
744,0.0
182,0.0
183,0.0
12,0.0
281,0.0
312,0.0
366,0.0
387,0.0
408,0.0
429,0.0
450,0.0
471,0.0
492,0.0
513,0.0
534,0.0
555,0.0
576,0.0
597,0.0
618,0.0
639,0.0
660,0.0
681,0.0
724,0.0
2,1, 1, 1, 0, 8, 0.00,60.00,Sunday
6,23.0625
7,2.025
8,118.0
102,30.01392518389338
103,29.28179592949526
104,29.647860556694327
278,13.653223087814395
9,1.0
277,-1.0
105,0.0
106,0.0
107,38.41633519276398
108,0.35570680734040729
181,29.28179592949526
341,0.0
342,0.0
744,0.0
182,0.0
183,0.0
12,0.0
281,0.0
312,0.0
366,0.0
387,0.0
408,0.0
429,0.0
450,0.0
471,0.0
492,0.0
513,0.0
534,0.0
555,0.0
576,0.0
597,0.0
618,0.0
639,0.0
660,0.0
681,0.0
724,0.0
2,1, 1, 1, 0, 9, 0.00,60.00,Sunday
6,24.65
7,2.05
8,122.625
102,32.008345005451058
103,31.449864549606294
104,31.729104777528677
278,13.653223087814395
9,1.0
277,-1.0
105,0.0
106,0.0
107,37.79135933996475
108,0.34991999388856245
181,31.449864549606294
341,0.0
342,0.0
744,0.0
182,0.0
183,0.0
12,0.0
281,0.0
312,0.0
366,0.0
387,0.0
408,0.0
429,0.0
450,0.0
471,0.0
492,0.0
513,0.0
534,0.0
555,0.0
576,0.0
597,0.0
618,0.0
639,0.0
660,0.0
681,0.0
724,0.0
2,1, 1, 1, 0,10, 0.00,60.00,Sunday
6,26.3375
7,2.6374999999999999
8,115.875
102,33.73674105416636
103,33.37473772520357
104,33.555739389684969
278,13.653223087814395
9,1.0
277,-1.0
105,0.0
106,0.0
107,55.25915375164236
108,0.5116588310337256
181,33.37473772520357
341,0.0
342,0.0
744,0.0
182,0.0
183,0.0
12,0.0
281,0.0
312,0.0
366,0.0
387,0.0
408,0.0
429,0.0
450,0.0
471,0.0
492,0.0
513,0.0
534,0.0
555,0.0
576,0.0
597,0.0
618,0.0
639,0.0
660,0.0
681,0.0
724,0.0
2,1, 1, 1, 0,11, 0.00,60.00,Sunday
6,27.9
7,2.7750000000000005
8,109.25
102,34.53469835072075
103,34.22066561337924
104,34.37768198204999
278,13.653223087814395
9,1.0
277,-1.0
105,0.0
106,0.0
107,60.30790508188038
108,0.5584065285359294
181,34.22066561337924
341,0.0
342,0.0
744,0.0
182,0.0
183,0.0
12,0.0
281,0.0
312,0.0
366,0.0
387,0.0
408,0.0
429,0.0
450,0.0
471,0.0
492,0.0
513,0.0
534,0.0
555,0.0
576,0.0
597,0.0
618,0.0
639,0.0
660,0.0
681,0.0
724,0.0
2,1, 1, 1, 0,12, 0.00,60.00,Sunday
6,29.6875
7,2.7
8,120.625
102,34.51465169457271
103,34.33101823117993
104,34.42283496287632
278,13.653223087814395
9,1.0
277,-1.0
105,0.0
106,0.0
107,55.104446132447169
108,0.5102263530782145
181,34.33101823117993
341,0.0
342,0.0
744,0.0
182,0.0
183,0.0
12,0.0
281,0.0
312,0.0
366,0.0
387,0.0
408,0.0
429,0.0
450,0.0
471,0.0
492,0.0
513,0.0
534,0.0
555,0.0
576,0.0
597,0.0
618,0.0
639,0.0
660,0.0
681,0.0
724,0.0
2,1, 1, 1, 0,13, 0.00,60.00,Sunday
6,30.275
7,3.075
8,118.875
102,34.20476770159922
103,33.88862588630717
104,34.04669679395319
278,13.653223087814395
9,1.0
277,-1.0
105,0.0
106,0.0
107,66.28898516066444
108,0.6137868996357819
181,33.88862588630717
341,0.0
342,0.0
744,0.0
182,0.0
183,0.0
12,0.0
281,0.0
312,0.0
366,0.0
387,0.0
408,0.0
429,0.0
450,0.0
471,0.0
492,0.0
513,0.0
534,0.0
555,0.0
576,0.0
597,0.0
618,0.0
639,0.0
660,0.0
681,0.0
724,0.0
2,1, 1, 1, 0,14, 0.00,60.00,Sunday
6,29.95
7,3.7375
8,149.0
102,34.50756913310358
103,34.10817668625562
104,34.3078729096796
278,13.653223087814395
9,1.0
277,-1.0
105,0.0
106,0.0
107,52.77268095933846
108,0.4886359348086895
181,34.10817668625562
341,0.0
342,0.0
744,0.0
182,0.0
183,0.0
12,0.0
281,0.0
312,0.0
366,0.0
387,0.0
408,0.0
429,0.0
450,0.0
471,0.0
492,0.0
513,0.0
534,0.0
555,0.0
576,0.0
597,0.0
618,0.0
639,0.0
660,0.0
681,0.0
724,0.0
2,1, 1, 1, 0,15, 0.00,60.00,Sunday
6,27.487500000000006
7,4.5625
8,173.75
102,34.307163775533819
103,34.09018169834901
104,34.19867273694141
278,13.653223087814395
9,1.0
277,-1.0
105,0.0
106,0.0
107,21.23179728330115
108,0.19659071558612177
181,34.09018169834901
341,0.0
342,0.0
744,0.0
182,0.0
183,0.0
12,0.0
281,0.0
312,0.0
366,0.0
387,0.0
408,0.0
429,0.0
450,0.0
471,0.0
492,0.0
513,0.0
534,0.0
555,0.0
576,0.0
597,0.0
618,0.0
639,0.0
660,0.0
681,0.0
724,0.0
2,1, 1, 1, 0,16, 0.00,60.00,Sunday
6,25.35
7,4.15
8,196.625
102,33.20504062261988
103,32.88418660051854
104,33.04461361156921
278,13.653223087814395
9,1.0
277,-1.0
105,0.0
106,0.0
107,23.44952081868939
108,0.21712519276564253
181,32.88418660051854
341,0.0
342,0.0
744,0.0
182,0.0
183,0.0
12,0.0
281,0.0
312,0.0
366,0.0
387,0.0
408,0.0
429,0.0
450,0.0
471,0.0
492,0.0
513,0.0
534,0.0
555,0.0
576,0.0
597,0.0
618,0.0
639,0.0
660,0.0
681,0.0
724,0.0
2,1, 1, 1, 0,17, 0.00,60.00,Sunday
6,24.3375
7,4.137500000000001
8,163.375
102,32.5197589155719
103,31.91682427730653
104,32.218291596439218
278,13.653223087814395
9,1.0
277,-1.0
105,0.0
106,0.0
107,46.78808329889741
108,0.4332229935083094
181,31.91682427730653
341,0.0
342,0.0
744,0.0
182,0.0
183,0.0
12,0.0
281,0.0
312,0.0
366,0.0
387,0.0
408,0.0
429,0.0
450,0.0
471,0.0
492,0.0
513,0.0
534,0.0
555,0.0
576,0.0
597,0.0
618,0.0
639,0.0
660,0.0
681,0.0
724,0.0
2,1, 1, 1, 0,18, 0.00,60.00,Sunday
6,23.3125
7,2.7125
8,160.375
102,31.90072761954262
103,31.290298296264078
104,31.595512957903354
278,13.653223087814395
9,1.0
277,-1.0
105,0.0
106,0.0
107,33.27872171294744
108,0.3081363121569207
181,31.290298296264078
341,0.0
342,0.0
744,0.0
182,0.0
183,0.0
12,0.0
281,0.0
312,0.0
366,0.0
387,0.0
408,0.0
429,0.0
450,0.0
471,0.0
492,0.0
513,0.0
534,0.0
555,0.0
576,0.0
597,0.0
618,0.0
639,0.0
660,0.0
681,0.0
724,0.0
2,1, 1, 1, 0,19, 0.00,60.00,Sunday
6,23.025
7,2.3874999999999999
8,146.875
102,31.554868223589574
103,30.91159210950196
104,31.233230166545764
278,13.653223087814395
9,1.0
277,-1.0
105,0.0
106,0.0
107,33.8111594984665
108,0.31306629165246765
181,30.91159210950196
341,0.0
342,0.0
744,0.0
182,0.0
183,0.0
12,0.0
281,0.0
312,0.0
366,0.0
387,0.0
408,0.0
429,0.0
450,0.0
471,0.0
492,0.0
513,0.0
534,0.0
555,0.0
576,0.0
597,0.0
618,0.0
639,0.0
660,0.0
681,0.0
724,0.0
2,1, 1, 1, 0,20, 0.00,60.00,Sunday
6,22.85
7,2.925
8,141.875
102,31.25309123559814
103,30.545965421638113
104,30.899528328618126
278,13.653223087814395
9,1.0
277,-1.0
105,0.0
106,0.0
107,46.894890030090838
108,0.43421194472306326
181,30.545965421638113
341,0.0
342,0.0
744,0.0
182,0.0
183,0.0
12,0.0
281,0.0
312,0.0
366,0.0
387,0.0
408,0.0
429,0.0
450,0.0
471,0.0
492,0.0
513,0.0
534,0.0
555,0.0
576,0.0
597,0.0
618,0.0
639,0.0
660,0.0
681,0.0
724,0.0
2,1, 1, 1, 0,21, 0.00,60.00,Sunday
6,22.45
7,2.6875
8,146.5
102,30.897430140022999
103,30.254954361094677
104,30.57619225055884
278,13.653223087814395
9,1.0
277,-1.0
105,0.0
106,0.0
107,38.69556850054924
108,0.3582923009310116
181,30.254954361094677
341,0.0
342,0.0
744,0.0
182,0.0
183,0.0
12,0.0
281,0.0
312,0.0
366,0.0
387,0.0
408,0.0
429,0.0
450,0.0
471,0.0
492,0.0
513,0.0
534,0.0
555,0.0
576,0.0
597,0.0
618,0.0
639,0.0
660,0.0
681,0.0
724,0.0
2,1, 1, 1, 0,22, 0.00,60.00,Sunday
6,22.1125
7,2.0625
8,145.625
102,30.568193036113887
103,30.009014523366369
104,30.288603779740126
278,13.653223087814395
9,1.0
277,-1.0
105,0.0
106,0.0
107,27.326538928365506
108,0.25302350859597697
181,30.009014523366369
341,0.0
342,0.0
744,0.0
182,0.0
183,0.0
12,0.0
281,0.0
312,0.0
366,0.0
387,0.0
408,0.0
429,0.0
450,0.0
471,0.0
492,0.0
513,0.0
534,0.0
555,0.0
576,0.0
597,0.0
618,0.0
639,0.0
660,0.0
681,0.0
724,0.0
2,1, 1, 1, 0,23, 0.00,60.00,Sunday
6,21.874999999999998
7,2.425
8,138.5
102,30.236364687409773
103,29.613496773870705
104,29.924930730640239
278,13.653223087814395
9,1.0
277,-1.0
105,0.0
106,0.0
107,38.93730183101162
108,0.3605305725093669
181,29.613496773870705
341,0.0
342,0.0
744,0.0
182,0.0
183,0.0
12,0.0
281,0.0
312,0.0
366,0.0
387,0.0
408,0.0
429,0.0
450,0.0
471,0.0
492,0.0
513,0.0
534,0.0
555,0.0
576,0.0
597,0.0
618,0.0
639,0.0
660,0.0
681,0.0
724,0.0
2,1, 1, 1, 0,24, 0.00,60.00,Sunday
6,21.7375
7,3.4875
8,124.0
102,29.848812910250666
103,28.975997665774324
104,29.412405288012495
278,13.653223087814395
9,1.0
277,-1.0
105,0.0
106,0.0
107,75.36536263675333
108,0.6978274318217902
181,28.975997665774324
341,0.0
342,0.0
744,0.0
182,0.0
183,0.0
12,0.0
281,0.0
312,0.0
366,0.0
387,0.0
408,0.0
429,0.0
450,0.0
471,0.0
492,0.0
513,0.0
534,0.0
555,0.0
576,0.0
597,0.0
618,0.0
639,0.0
660,0.0
681,0.0
724,0.0
2,2, 1, 2, 0, 1, 0.00,60.00,Monday
6,21.45
7,3.5249999999999996
8,123.0
102,29.46076020742251
103,28.555387180996016
104,29.00807369420926
278,14.005615651553914
9,2.0
277,-1.0
105,0.0
106,0.0
107,77.24007362256723
108,0.7151858668756226
181,28.555387180996016
341,0.0
342,0.0
744,0.0
182,0.0
183,0.0
12,0.0
281,0.0
312,0.0
366,0.0
387,0.0
408,0.0
429,0.0
450,0.0
471,0.0
492,0.0
513,0.0
534,0.0
555,0.0
576,0.0
597,0.0
618,0.0
639,0.0
660,0.0
681,0.0
724,0.0
2,2, 1, 2, 0, 2, 0.00,60.00,Monday
6,21.2375
7,2.6125
8,122.875
102,29.148117505454068
103,28.417425443572225
104,28.782771474513149
278,14.005615651553914
9,2.0
277,-1.0
105,0.0
106,0.0
107,52.201473071062498
108,0.4833469728802084
181,28.417425443572225
341,0.0
342,0.0
744,0.0
182,0.0
183,0.0
12,0.0
281,0.0
312,0.0
366,0.0
387,0.0
408,0.0
429,0.0
450,0.0
471,0.0
492,0.0
513,0.0
534,0.0
555,0.0
576,0.0
597,0.0
618,0.0
639,0.0
660,0.0
681,0.0
724,0.0
2,2, 1, 2, 0, 3, 0.00,60.00,Monday
6,21.075
7,1.7625000000000002
8,141.0
102,28.885279751041329
103,28.365373582949084
104,28.625326666995208
278,14.005615651553914
9,2.0
277,-1.0
105,0.0
106,0.0
107,24.788652256552873
108,0.22952455793104513
181,28.365373582949084
341,0.0
342,0.0
744,0.0
182,0.0
183,0.0
12,0.0
281,0.0
312,0.0
366,0.0
387,0.0
408,0.0
429,0.0
450,0.0
471,0.0
492,0.0
513,0.0
534,0.0
555,0.0
576,0.0
597,0.0
618,0.0
639,0.0
660,0.0
681,0.0
724,0.0
2,2, 1, 2, 0, 4, 0.00,60.00,Monday
6,21.125
7,1.3125000000000003
8,183.625
102,28.64513331708072
103,28.21769839055402
104,28.43141585381737
278,14.005615651553914
9,2.0
277,-1.0
105,0.0
106,0.0
107,15.416183017410607
108,0.14274243534639456
181,28.21769839055402
341,0.0
342,0.0
744,0.0
182,0.0
183,0.0
12,0.0
281,0.0
312,0.0
366,0.0
387,0.0
408,0.0
429,0.0
450,0.0
471,0.0
492,0.0
513,0.0
534,0.0
555,0.0
576,0.0
597,0.0
618,0.0
639,0.0
660,0.0
681,0.0
724,0.0
2,2, 1, 2, 0, 5, 0.00,60.00,Monday
6,21.012499999999997
7,2.8249999999999999
8,242.0
102,28.35789208658364
103,27.93580471543847
104,28.146848401011057
278,14.005615651553914
9,2.0
277,-1.0
105,0.0
106,0.0
107,16.789316724184116
108,0.15545663633503813
181,27.93580471543847
341,0.0
342,0.0
744,0.0
182,0.0
183,0.0
12,0.0
281,0.0
312,0.0
366,0.0
387,0.0
408,0.0
429,0.0
450,0.0
471,0.0
492,0.0
513,0.0
534,0.0
555,0.0
576,0.0
597,0.0
618,0.0
639,0.0
660,0.0
681,0.0
724,0.0
2,2, 1, 2, 0, 6, 0.00,60.00,Monday
6,20.7125
7,2.8
8,215.375
102,28.06371395693771
103,27.629255572276109
104,27.846484764606907
278,14.005615651553914
9,2.0
277,-1.0
105,0.0
106,0.0
107,15.829624831512412
108,0.14657060029178163
181,27.629255572276109
341,0.0
342,0.0
744,0.0
182,0.0
183,0.0
12,0.0
281,0.0
312,0.0
366,0.0
387,0.0
408,0.0
429,0.0
450,0.0
471,0.0
492,0.0
513,0.0
534,0.0
555,0.0
576,0.0
597,0.0
618,0.0
639,0.0
660,0.0
681,0.0
724,0.0
2,2, 1, 2, 0, 7, 0.00,60.00,Monday
6,20.9125
7,1.5750000000000002
8,163.75
102,27.976848843486186
103,27.548362672917336
104,27.762605758201759
278,14.005615651553914
9,2.0
277,-1.0
105,0.0
106,0.0
107,15.108758472943706
108,0.1398959117865158
181,27.548362672917336
341,0.0
342,0.0
744,0.0
182,0.0
183,0.0
12,0.0
281,0.0
312,0.0
366,0.0
387,0.0
408,0.0
429,0.0
450,0.0
471,0.0
492,0.0
513,0.0
534,0.0
555,0.0
576,0.0
597,0.0
618,0.0
639,0.0
660,0.0
681,0.0
724,0.0
2,2, 1, 2, 0, 8, 0.00,60.00,Monday
6,21.5375
7,2.1999999999999999
8,131.625
102,28.249995378637786
103,25.01739716883538
104,26.633696273736584
278,14.005615651553914
9,2.0
277,0.0
105,0.009642857142857144
106,0.009642857142857144
107,41.28081066051632
108,0.3822297283381142
181,25.017397168835385
341,0.0
342,1996.2560974926314
744,355.8983360601337
182,1.9642857142857145
183,1.0
12,3355200.0
281,0.0
312,7186521.9509734739
366,1305.09107466129
387,0.0
408,0.0
429,0.0
450,0.0
471,0.0
492,0.0
513,0.0
534,0.0
555,0.0
576,0.0
597,0.0
618,0.0
639,0.0
660,0.0
681,0.0
724,355.8983360601337
2,2, 1, 2, 0, 9, 0.00,60.00,Monday
6,22.55
7,2.4875
8,116.25
102,28.968069461072024
103,25.0000000011594
104,26.984034731115707
278,14.005615651553914
9,2.0
277,0.0
105,0.0
106,0.0
107,50.46441309301861
108,0.4672630841946168
181,25.0000000011594
341,0.0
342,2260.9955669794863
744,375.5592921449122
182,2.0
183,1.0
12,3355200.0
281,0.0
312,8139584.041126152
366,1377.188456710349
387,0.0
408,0.0
429,0.0
450,0.0
471,0.0
492,0.0
513,0.0
534,0.0
555,0.0
576,0.0
597,0.0
618,0.0
639,0.0
660,0.0
681,0.0
724,375.5592921449122
2,2, 1, 2, 0,10, 0.00,60.00,Monday
6,23.375
7,2.05
8,120.875
102,29.454340133060719
103,25.000000000003156
104,27.227170066531934
278,14.005615651553914
9,2.0
277,0.0
105,0.0
106,0.0
107,38.212958124399339
108,0.35382368633703095
181,25.000000000003156
341,0.0
342,2525.8297737848425
744,395.2272839250565
182,2.0
183,1.0
12,3355200.0
281,0.0
312,9092987.185625434
366,1449.311638889096
387,0.0
408,0.0
429,0.0
450,0.0
471,0.0
492,0.0
513,0.0
534,0.0
555,0.0
576,0.0
597,0.0
618,0.0
639,0.0
660,0.0
681,0.0
724,395.2272839250565
2,2, 1, 2, 0,11, 0.00,60.00,Monday
6,24.6625
7,1.275
8,158.75
102,29.599582247708317
103,25.000000000000214
104,27.299791123854264
278,14.005615651553914
9,2.0
277,0.0
105,0.0
106,0.0
107,12.965268707508884
108,0.12004878432878596
181,25.000000000000214
341,0.0
342,2635.949296653413
744,403.40534331073197
182,2.0
183,1.0
12,3355200.0
281,0.0
312,9489417.467952287
366,1479.3008555582398
387,0.0
408,0.0
429,0.0
450,0.0
471,0.0
492,0.0
513,0.0
534,0.0
555,0.0
576,0.0
597,0.0
618,0.0
639,0.0
660,0.0
681,0.0
724,403.40534331073197
2,2, 1, 2, 0,12, 0.00,60.00,Monday
6,25.175000000000006
7,1.2125
8,191.5
102,29.47464941351864
103,25.015469402035998
104,27.24505940777732
278,14.005615651553914
9,2.0
277,0.0
105,0.0
106,0.0
107,7.000850965962918
108,0.06482269412928629
181,25.015469402035998
341,0.0
342,2243.454031826946
744,332.7274090982296
182,1.977272727272727
183,1.0
12,2684160.0000000006
281,0.0
312,8076434.514577006
366,1220.1225122780697
387,0.0
408,0.0
429,0.0
450,0.0
471,0.0
492,0.0
513,0.0
534,0.0
555,0.0
576,0.0
597,0.0
618,0.0
639,0.0
660,0.0
681,0.0
724,332.7274090982296
2,2, 1, 2, 0,13, 0.00,60.00,Monday
6,25.0375
7,1.775
8,199.625
102,29.475932970046068
103,25.000001474159345
104,27.237967222102705
278,14.005615651553914
9,2.0
277,0.0
105,0.0
106,0.0
107,8.601194294341079
108,0.07964068791056556
181,25.000001474159345
341,0.0
342,2528.824910093507
744,395.4497186211248
182,2.0
183,1.0
12,3355200.0
281,0.0
312,9103769.676336626
366,1450.127314342225
387,0.0
408,0.0
429,0.0
450,0.0
471,0.0
492,0.0
513,0.0
534,0.0
555,0.0
576,0.0
597,0.0
618,0.0
639,0.0
660,0.0
681,0.0
724,395.4497186211248
2,2, 1, 2, 0,14, 0.00,60.00,Monday
6,25.6875
7,2.125
8,180.625
102,29.732585413186834
103,25.000000005484109
104,27.366292709335469
278,14.005615651553914
9,2.0
277,0.0
105,0.0
106,0.0
107,9.486958056356733
108,0.0878422042255253
181,25.000000005484109
341,0.0
342,2735.3251429420143
744,410.78552033365568
182,2.0
183,1.0
12,3355200.0
281,0.0
312,9847170.514591253
366,1506.364210977835
387,0.0
408,0.0
429,0.0
450,0.0
471,0.0
492,0.0
513,0.0
534,0.0
555,0.0
576,0.0
597,0.0
618,0.0
639,0.0
660,0.0
681,0.0
724,410.78552033365568
2,2, 1, 2, 0,15, 0.00,60.00,Monday
6,25.4125
7,2.3249999999999999
8,166.5
102,29.584664387884869
103,25.000000000022668
104,27.29233219395377
278,14.005615651553914
9,2.0
277,0.0
105,0.0
106,0.0
107,16.563941435028967
108,0.15336982810212008
181,25.000000000022668
341,0.0
342,2667.0163604538207
744,405.71254811947008
182,2.0
183,1.0
12,3355200.0
281,0.0
312,9601258.897633754
366,1487.761452583315
387,0.0
408,0.0
429,0.0
450,0.0
471,0.0
492,0.0
513,0.0
534,0.0
555,0.0
576,0.0
597,0.0
618,0.0
639,0.0
660,0.0
681,0.0
724,405.71254811947008
2,2, 1, 2, 0,16, 0.00,60.00,Monday
6,22.374999999999998
7,3.775
8,204.375
102,27.874422875848155
103,25.00000000000013
104,26.43721143792414
278,14.005615651553914
9,2.0
277,0.0
105,0.0
106,0.0
107,18.328030014804669
108,0.16970398161856177
181,25.00000000000013
341,0.0
342,1921.9626951198647
744,350.38091425570476
182,2.0
183,1.0
12,3355200.0
281,0.0
312,6919065.702431513
366,1284.8585047880629
387,0.0
408,0.0
429,0.0
450,0.0
471,0.0
492,0.0
513,0.0
534,0.0
555,0.0
576,0.0
597,0.0
618,0.0
639,0.0
660,0.0
681,0.0
724,350.38091425570476
2,2, 1, 2, 0,17, 0.00,60.00,Monday
6,20.925
7,2.9125
8,159.25
102,27.256769780125294
103,25.025662569361218
104,26.141216174743258
278,14.005615651553914
9,2.0
277,0.0
105,0.01125
106,0.01125
107,33.37419701044246
108,0.3090203426892821
181,25.025662569361218
341,0.0
342,1615.9795841340276
744,327.6569867679105
182,1.9583333333333333
183,1.0
12,3355200.0
281,0.0
312,5817526.5028825
366,1201.5291043927775
387,0.0
408,0.0
429,0.0
450,0.0
471,0.0
492,0.0
513,0.0
534,0.0
555,0.0
576,0.0
597,0.0
618,0.0
639,0.0
660,0.0
681,0.0
724,327.6569867679105
2,2, 1, 2, 0,18, 0.00,60.00,Monday
6,21.0625
7,2.525
8,97.375
102,27.101311768138698
103,25.000000050152669
104,26.050655909145683
278,14.005615651553914
9,2.0
277,0.0
105,0.0
106,0.0
107,53.4210332122004
108,0.494639196409263
181,25.000000050152669
341,0.0
342,1548.8925238223464
744,322.67474611750256
182,2.0
183,1.0
12,3355200.0
281,0.0
312,5576013.085760448
366,1183.259061670343
387,0.0
408,0.0
429,0.0
450,0.0
471,0.0
492,0.0
513,0.0
534,0.0
555,0.0
576,0.0
597,0.0
618,0.0
639,0.0
660,0.0
681,0.0
724,322.67474611750256
2,2, 1, 2, 0,19, 0.00,60.00,Monday
6,21.0375
7,3.4000000000000005
8,80.0
102,27.089775387339267
103,26.137835781974233
104,26.613805584656754
278,14.005615651553914
9,2.0
277,-1.0
105,0.0
106,0.0
107,72.0801541253098
108,0.6674088344936093
181,26.137835781974233
341,0.0
342,0.0
744,0.0
182,0.0
183,0.0
12,0.0
281,0.0
312,0.0
366,0.0
387,0.0
408,0.0
429,0.0
450,0.0
471,0.0
492,0.0
513,0.0
534,0.0
555,0.0
576,0.0
597,0.0
618,0.0
639,0.0
660,0.0
681,0.0
724,0.0
2,2, 1, 2, 0,20, 0.00,60.00,Monday
6,21.0
7,2.2
8,80.75
102,26.91049938210854
103,26.347745219740469
104,26.6291223009245
278,14.005615651553914
9,2.0
277,-1.0
105,0.0
106,0.0
107,41.619078593275258
108,0.3853618388266228
181,26.347745219740469
341,0.0
342,0.0
744,0.0
182,0.0
183,0.0
12,0.0
281,0.0
312,0.0
366,0.0
387,0.0
408,0.0
429,0.0
450,0.0
471,0.0
492,0.0
513,0.0
534,0.0
555,0.0
576,0.0
597,0.0
618,0.0
639,0.0
660,0.0
681,0.0
724,0.0
2,2, 1, 2, 0,21, 0.00,60.00,Monday
6,21.1875
7,1.8000000000000003
8,88.625
102,26.751174469160885
103,26.286087609903509
104,26.518631039532197
278,14.005615651553914
9,2.0
277,-1.0
105,0.0
106,0.0
107,34.94428070918765
108,0.3235581547147005
181,26.286087609903509
341,0.0
342,0.0
744,0.0
182,0.0
183,0.0
12,0.0
281,0.0
312,0.0
366,0.0
387,0.0
408,0.0
429,0.0
450,0.0
471,0.0
492,0.0
513,0.0
534,0.0
555,0.0
576,0.0
597,0.0
618,0.0
639,0.0
660,0.0
681,0.0
724,0.0
2,2, 1, 2, 0,22, 0.00,60.00,Monday
6,21.1125
7,2.225
8,78.875
102,26.53228555682537
103,26.037365010408196
104,26.284825283616784
278,14.005615651553914
9,2.0
277,-1.0
105,0.0
106,0.0
107,40.62586705981988
108,0.376165435739073
181,26.037365010408196
341,0.0
342,0.0
744,0.0
182,0.0
183,0.0
12,0.0
281,0.0
312,0.0
366,0.0
387,0.0
408,0.0
429,0.0
450,0.0
471,0.0
492,0.0
513,0.0
534,0.0
555,0.0
576,0.0
597,0.0
618,0.0
639,0.0
660,0.0
681,0.0
724,0.0
2,2, 1, 2, 0,23, 0.00,60.00,Monday
6,21.0625
7,2.8625
8,78.5
102,26.30191239456535
103,25.747258463203985
104,26.02458542888467
278,14.005615651553914
9,2.0
277,-1.0
105,0.0
106,0.0
107,56.72195109442262
108,0.5252032508742837
181,25.747258463203985
341,0.0
342,0.0
744,0.0
182,0.0
183,0.0
12,0.0
281,0.0
312,0.0
366,0.0
387,0.0
408,0.0
429,0.0
450,0.0
471,0.0
492,0.0
513,0.0
534,0.0
555,0.0
576,0.0
597,0.0
618,0.0
639,0.0
660,0.0
681,0.0
724,0.0
2,2, 1, 2, 0,24, 0.00,60.00,Monday
6,21.0375
7,1.825
8,93.0
102,26.096269136103897
103,25.629279604933026
104,25.86277437051846
278,14.005615651553914
9,2.0
277,-1.0
105,0.0
106,0.0
107,36.09946230879672
108,0.33425428063700676
181,25.629279604933026
341,0.0
342,0.0
744,0.0
182,0.0
183,0.0
12,0.0
281,0.0
312,0.0
366,0.0
387,0.0
408,0.0
429,0.0
450,0.0
471,0.0
492,0.0
513,0.0
534,0.0
555,0.0
576,0.0
597,0.0
618,0.0
639,0.0
660,0.0
681,0.0
724,0.0
2,3, 1, 3, 0, 1, 0.00,60.00,Tuesday
6,20.75
7,0.7500000000000001
8,149.625
102,25.914429215701348
103,25.609040456138624
104,25.761734835919989
278,14.277685407613229
9,3.0
277,-1.0
105,0.0
106,0.0
107,12.269904876845
108,0.11361023034115742
181,25.609040456138624
341,0.0
342,0.0
744,0.0
182,0.0
183,0.0
12,0.0
281,0.0
312,0.0
366,0.0
387,0.0
408,0.0
429,0.0
450,0.0
471,0.0
492,0.0
513,0.0
534,0.0
555,0.0
576,0.0
597,0.0
618,0.0
639,0.0
660,0.0
681,0.0
724,0.0
2,3, 1, 3, 0, 2, 0.00,60.00,Tuesday
6,20.475
7,1.0374999999999999
8,130.0
102,25.69395004576171
103,25.36967933725874
104,25.531814691510229
278,14.277685407613229
9,3.0
277,-1.0
105,0.0
106,0.0
107,15.965925675213324
108,0.14783264514086415
181,25.36967933725874
341,0.0
342,0.0
744,0.0
182,0.0
183,0.0
12,0.0
281,0.0
312,0.0
366,0.0
387,0.0
408,0.0
429,0.0
450,0.0
471,0.0
492,0.0
513,0.0
534,0.0
555,0.0
576,0.0
597,0.0
618,0.0
639,0.0
660,0.0
681,0.0
724,0.0
2,3, 1, 3, 0, 3, 0.00,60.00,Tuesday
6,20.275
7,1.4875000000000003
8,96.25
102,25.462746181067183
103,25.071624049645857
104,25.26718511535652
278,14.277685407613229
9,3.0
277,-1.0
105,0.0
106,0.0
107,27.14769483966417
108,0.2513675448117053
181,25.071624049645857
341,0.0
342,0.0
744,0.0
182,0.0
183,0.0
12,0.0
281,0.0
312,0.0
366,0.0
387,0.0
408,0.0
429,0.0
450,0.0
471,0.0
492,0.0
513,0.0
534,0.0
555,0.0
576,0.0
597,0.0
618,0.0
639,0.0
660,0.0
681,0.0
724,0.0
2,3, 1, 3, 0, 4, 0.00,60.00,Tuesday
6,19.8875
7,1.5375
8,78.375
102,25.21850561970849
103,24.83130769963267
104,25.02490665967058
278,14.277685407613229
9,3.0
277,-1.0
105,0.0
106,0.0
107,24.689009778228475
108,0.22860194239100443
181,24.83130769963267
341,0.0
342,0.0
744,0.0
182,0.0
183,0.0
12,0.0
281,0.0
312,0.0
366,0.0
387,0.0
408,0.0
429,0.0
450,0.0
471,0.0
492,0.0
513,0.0
534,0.0
555,0.0
576,0.0
597,0.0
618,0.0
639,0.0
660,0.0
681,0.0
724,0.0
2,3, 1, 3, 0, 5, 0.00,60.00,Tuesday
6,19.6375
7,1.25
8,77.75
102,24.99065541367856
103,24.639297123325315
104,24.814976268501935
278,14.277685407613229
9,3.0
277,-1.0
105,0.0
106,0.0
107,18.06440702563477
108,0.16726302801513683
181,24.639297123325315
341,0.0
342,0.0
744,0.0
182,0.0
183,0.0
12,0.0
281,0.0
312,0.0
366,0.0
387,0.0
408,0.0
429,0.0
450,0.0
471,0.0
492,0.0
513,0.0
534,0.0
555,0.0
576,0.0
597,0.0
618,0.0
639,0.0
660,0.0
681,0.0
724,0.0
2,3, 1, 3, 0, 6, 0.00,60.00,Tuesday
6,19.974999999999999
7,0.975
8,84.25
102,25.171105831569709
103,24.72115025828854
104,24.946128044929126
278,14.277685407613229
9,3.0
277,-1.0
105,0.0
106,0.0
107,14.444554214734606
108,0.1337458723586538
181,24.72115025828854
341,0.0
342,0.0
744,0.0
182,0.0
183,0.0
12,0.0
281,0.0
312,0.0
366,0.0
387,0.0
408,0.0
429,0.0
450,0.0
471,0.0
492,0.0
513,0.0
534,0.0
555,0.0
576,0.0
597,0.0
618,0.0
639,0.0
660,0.0
681,0.0
724,0.0
2,3, 1, 3, 0, 7, 0.00,60.00,Tuesday
6,21.2
7,1.65
8,92.5
102,26.393431551538606
103,25.86296812602538
104,26.128199838781997
278,14.277685407613229
9,3.0
277,-1.0
105,0.0
106,0.0
107,31.476482823131528
108,0.29144891502899569
181,25.86296812602538
341,0.0
342,0.0
744,0.0
182,0.0
183,0.0
12,0.0
281,0.0
312,0.0
366,0.0
387,0.0
408,0.0
429,0.0
450,0.0
471,0.0
492,0.0
513,0.0
534,0.0
555,0.0
576,0.0
597,0.0
618,0.0
639,0.0
660,0.0
681,0.0
724,0.0
2,3, 1, 3, 0, 8, 0.00,60.00,Tuesday
6,22.925000000000006
7,1.6
8,98.25
102,27.797782958664837
103,25.010673493659096
104,26.404228226161967
278,14.277685407613229
9,3.0
277,0.0
105,0.0
106,0.0
107,29.912053359845858
108,0.27696345703560978
181,25.010673493659096
341,0.0
342,2044.0165284838015
744,359.44527878887609
182,2.0
183,1.0
12,3355200.0
281,0.0
312,7358459.502541686
366,1318.0978320090799
387,0.0
408,0.0
429,0.0
450,0.0
471,0.0
492,0.0
513,0.0
534,0.0
555,0.0
576,0.0
597,0.0
618,0.0
639,0.0
660,0.0
681,0.0
724,359.44527878887609
2,3, 1, 3, 0, 9, 0.00,60.00,Tuesday
6,24.7875
7,1.4875000000000003
8,57.75
102,28.477536414326424
103,25.000000017339806
104,26.73876821583311
278,14.277685407613229
9,3.0
277,0.0
105,0.0
106,0.0
107,15.409149847619663
108,0.14267731340388579
181,25.000000017339806
341,0.0
342,2211.247623547676
744,371.86474620880116
182,2.0
183,1.0
12,3355200.0
281,0.0
312,7960491.444771634
366,1363.6404334756185
387,0.0
408,0.0
429,0.0
450,0.0
471,0.0
492,0.0
513,0.0
534,0.0
555,0.0
576,0.0
597,0.0
618,0.0
639,0.0
660,0.0
681,0.0
724,371.86474620880116
2,3, 1, 3, 0,10, 0.00,60.00,Tuesday
6,26.75
7,1.6
8,99.25
102,29.87027981046649
103,25.00000000005285
104,27.435139905259676
278,14.277685407613229
9,3.0
277,0.0
105,0.0
106,0.0