Program Version,EnergyPlus, Version 8.7.0-78a111df4a, YMD=2017.07.19 23:19
1,5,Environment Title[],Latitude[deg],Longitude[deg],Time Zone[],Elevation[m]
2,6,Day of Simulation[],Month[],Day of Month[],DST Indicator[1=yes 0=no],Hour[],StartMinute[],EndMinute[],DayType
3,3,Cumulative Day of Simulation[],Month[],Day of Month[],DST Indicator[1=yes 0=no],DayType  ! When Daily Report Variables Requested
4,2,Cumulative Days of Simulation[],Month[]  ! When Monthly Report Variables Requested
5,1,Cumulative Days of Simulation[] ! When Run Period Report Variables Requested
6,1,Environment,Site Outdoor Air Drybulb Temperature [C] !Hourly
7,1,Environment,Site Wind Speed [m/s] !Hourly
8,1,Environment,Site Wind Direction [deg] !Hourly
9,1,Environment,Site Day Type Index [] !Hourly
102,1,ZN1,Zone Mean Radiant Temperature [C] !Hourly
103,1,ZN1,Zone Mean Air Temperature [C] !Hourly
104,1,ZN1,Zone Operative Temperature [C] !Hourly
105,1,ZN1_PAR1_JAN,AFN Surface Venting Window or Door Opening Factor [] !Hourly
106,1,ZN1_PAR4_JAN,AFN Surface Venting Window or Door Opening Factor [] !Hourly
107,1,ZN1,AFN Zone Infiltration Volume [m3] !Hourly
108,1,ZN1,AFN Zone Infiltration Air Change Rate [ach] !Hourly
109,1,ZN1,Zone Air System Sensible Heating Energy [J] !Hourly
160,1,ZN1,Zone Air System Sensible Cooling Energy [J] !Hourly
181,1,ZN1,Zone Thermostat Air Temperature [C] !Hourly
182,1,ZN1,Zone Predicted Sensible Load to Setpoint Heat Transfer Rate [W] !Hourly
183,1,ZN1_HVAC,Availability Manager Hybrid Ventilation Control Status [] !Hourly
184,1,ZN1_HVAC,Availability Manager Hybrid Ventilation Control Mode [] !Hourly
278,1,OCCUPANCY,Zone Thermal Comfort ASHRAE 55 Adaptive Model 80% Acceptability Status [] !Hourly
279,1,OCCUPANCY,Zone Thermal Comfort ASHRAE 55 Adaptive Model Running Average Outdoor Air Temperature [C] !Hourly
777,1,Site,Environmental Impact Total CO2 Emissions Carbon Equivalent Mass [kg] !Hourly
12,1,Electricity:Facility [J] !Hourly
399,1,CO2:Facility [kg] !Hourly
420,1,CO:Facility [kg] !Hourly
441,1,CH4:Facility [kg] !Hourly
462,1,NOx:Facility [kg] !Hourly
483,1,N2O:Facility [kg] !Hourly
504,1,SO2:Facility [kg] !Hourly
525,1,PM:Facility [kg] !Hourly
546,1,PM10:Facility [kg] !Hourly
567,1,PM2.5:Facility [kg] !Hourly
588,1,NH3:Facility [kg] !Hourly
609,1,NMVOC:Facility [kg] !Hourly
630,1,Hg:Facility [kg] !Hourly
651,1,Pb:Facility [kg] !Hourly
672,1,WaterEnvironmentalFactors:Facility [L] !Hourly
693,1,Nuclear High:Facility [kg] !Hourly
714,1,Nuclear Low:Facility [m3] !Hourly
757,1,Carbon Equivalent:Facility [kg] !Hourly
End of Data Dictionary
1,SAO PAULO AEROPORTO ANN HTG 99.6% CONDNS DB, -23.85, -46.64,  -3.00, 792.00
2,1, 7,21, 0, 1, 0.00,60.00,WinterDesignDay
6,8.8
7,2.3
8,160.0
102,14.001381282532856
103,13.591564648975562
104,13.796472965754209
279,8.8
9,10.0
278,-1.0
105,0.0
106,0.0
107,21.26712572630273
108,0.19691783079909937
109,0.0
160,0.0
181,13.591564648975562
182,2932.430832971994
777,0.0
183,0.0
184,0.0
12,0.0
399,0.0
420,0.0
441,0.0
462,0.0
483,0.0
504,0.0
525,0.0
546,0.0
567,0.0
588,0.0
609,0.0
630,0.0
651,0.0
672,0.0
693,0.0
714,0.0
757,0.0
2,1, 7,21, 0, 2, 0.00,60.00,WinterDesignDay
6,8.8
7,2.3
8,160.0
102,13.794276935520202
103,13.395351742242435
104,13.594814338881319
279,8.8
9,10.0
278,-1.0
105,0.0
106,0.0
107,21.33277522386718
108,0.1975256965172887
109,0.0
160,0.0
181,13.395351742242435
182,3012.516318743143
777,0.0
183,0.0
184,0.0
12,0.0
399,0.0
420,0.0
441,0.0
462,0.0
483,0.0
504,0.0
525,0.0
546,0.0
567,0.0
588,0.0
609,0.0
630,0.0
651,0.0
672,0.0
693,0.0
714,0.0
757,0.0
2,1, 7,21, 0, 3, 0.00,60.00,WinterDesignDay
6,8.8
7,2.3
8,160.0
102,13.593126728923706
103,13.204811135128326
104,13.398968932026016
279,8.8
9,10.0
278,-1.0
105,0.0
106,0.0
107,21.38587248609715
108,0.19801733783423293
109,0.0
160,0.0
181,13.204811135128326
182,3089.4558212315924
777,0.0
183,0.0
184,0.0
12,0.0
399,0.0
420,0.0
441,0.0
462,0.0
483,0.0
504,0.0
525,0.0
546,0.0
567,0.0
588,0.0
609,0.0
630,0.0
651,0.0
672,0.0
693,0.0
714,0.0
757,0.0
2,1, 7,21, 0, 4, 0.00,60.00,WinterDesignDay
6,8.8
7,2.3
8,160.0
102,13.397750112592736
103,13.019772950534052
104,13.208761531563394
279,8.8
9,10.0
278,-1.0
105,0.0
106,0.0
107,21.429253765712006
108,0.19841901634918525
109,0.0
160,0.0
181,13.019772950534052
182,3163.3646199558407
777,0.0
183,0.0
184,0.0
12,0.0
399,0.0
420,0.0
441,0.0
462,0.0
483,0.0
504,0.0
525,0.0
546,0.0
567,0.0
588,0.0
609,0.0
630,0.0
651,0.0
672,0.0
693,0.0
714,0.0
757,0.0
2,1, 7,21, 0, 5, 0.00,60.00,WinterDesignDay
6,8.8
7,2.3
8,160.0
102,13.207971907537404
103,12.840073677356998
104,13.024022792447202
279,8.8
9,10.0
278,-1.0
105,0.0
106,0.0
107,21.46495761205681
108,0.19874960751904459
109,0.0
160,0.0
181,12.840073677356998
182,3234.351562929283
777,0.0
183,0.0
184,0.0
12,0.0
399,0.0
420,0.0
441,0.0
462,0.0
483,0.0
504,0.0
525,0.0
546,0.0
567,0.0
588,0.0
609,0.0
630,0.0
651,0.0
672,0.0
693,0.0
714,0.0
757,0.0
2,1, 7,21, 0, 6, 0.00,60.00,WinterDesignDay
6,8.8
7,2.3
8,160.0
102,13.023657292696873
103,12.665652160554336
104,12.844654726625605
279,8.8
9,10.0
278,-1.0
105,0.0
106,0.0
107,21.49448968414719
108,0.19902305263099252
109,0.0
160,0.0
181,12.665652160554336
182,3302.415723957396
777,0.0
183,0.0
184,0.0
12,0.0
399,0.0
420,0.0
441,0.0
462,0.0
483,0.0
504,0.0
525,0.0
546,0.0
567,0.0
588,0.0
609,0.0
630,0.0
651,0.0
672,0.0
693,0.0
714,0.0
757,0.0
2,1, 7,21, 0, 7, 0.00,60.00,WinterDesignDay
6,8.8
7,2.3
8,160.0
102,12.844654932727332
103,12.496386403015313
104,12.670520667871323
279,8.8
9,10.0
278,-1.0
105,0.0
106,0.0
107,21.518977140414934
108,0.19924978833717534
109,0.0
160,0.0
181,12.496386403015313
182,3367.630721254786
777,0.0
183,0.0
184,0.0
12,0.0
399,0.0
420,0.0
441,0.0
462,0.0
483,0.0
504,0.0
525,0.0
546,0.0
567,0.0
588,0.0
609,0.0
630,0.0
651,0.0
672,0.0
693,0.0
714,0.0
757,0.0
2,1, 7,21, 0, 8, 0.00,60.00,WinterDesignDay
6,8.8
7,2.3
8,160.0
102,13.811631744325272
103,18.675001424383738
104,16.243316584354504
279,8.8
9,10.0
278,-1.0
105,0.0
106,0.0
107,22.515405285969434
108,0.20847597487008738
109,3876062.460300212
160,0.0
181,18.67500142438374
182,4298.968370884632
777,535.5802085480758
183,2.0
184,1.0
12,8654058.5107222
399,1963.9904970593175
420,0.0
441,0.0
462,0.0
483,0.0
504,0.0
525,0.0
546,0.0
567,0.0
588,0.0
609,0.0
630,0.0
651,0.0
672,0.0
693,0.0
714,0.0
757,535.5802085480758
2,1, 7,21, 0, 9, 0.00,60.00,WinterDesignDay
6,8.8
7,2.3
8,160.0
102,14.633585911391794
103,19.982902081734193
104,17.308243996562994
279,8.8
9,10.0
278,-1.0
105,0.0
106,0.0
107,23.21725886735396
108,0.21497461914216638
109,3436248.3283248224
160,0.0
181,19.982902081734193
182,964.2045804374502
777,482.2068754662658
183,2.0
184,1.0
12,7791636.897618869
399,1768.268703579999
420,0.0
441,0.0
462,0.0
483,0.0
504,0.0
525,0.0
546,0.0
567,0.0
588,0.0
609,0.0
630,0.0
651,0.0
672,0.0
693,0.0
714,0.0
757,482.2068754662658
2,1, 7,21, 0,10, 0.00,60.00,WinterDesignDay
6,8.8
7,2.3
8,160.0
102,14.949192769473079
103,19.99985710890871
104,17.474524939190894
279,8.8
9,10.0
278,-1.0
105,0.0
106,0.0
107,23.253287010363559
108,0.21530821305892187
109,2964328.336264847
160,0.0
181,19.99985710890871
182,823.5045682788873
777,442.4476420802016
183,2.0
184,1.0
12,7149195.809294798
399,1622.4702679875381
420,0.0
441,0.0
462,0.0
483,0.0
504,0.0
525,0.0
546,0.0
567,0.0
588,0.0
609,0.0
630,0.0
651,0.0
672,0.0
693,0.0
714,0.0
757,442.4476420802016
2,1, 7,21, 0,11, 0.00,60.00,WinterDesignDay
6,8.8
7,2.3
8,160.0
102,15.203114270896258
103,19.99999916092165
104,17.601556715908953
279,8.8
9,10.0
278,-1.0
105,0.0
106,0.0
107,23.47618021043962
108,0.21737203898555208
109,2600204.911127648
160,0.0
181,19.99999916092165
182,722.2796071590756
777,413.5757301348126
183,2.0
184,1.0
12,6682675.181190993
399,1516.596003427989
420,0.0
441,0.0
462,0.0
483,0.0
504,0.0
525,0.0
546,0.0
567,0.0
588,0.0
609,0.0
630,0.0
651,0.0
672,0.0
693,0.0
714,0.0
757,413.5757301348126
2,1, 7,21, 0,12, 0.00,60.00,WinterDesignDay
6,8.8
7,2.3
8,160.0
102,15.355426147953887
103,19.999999995047657
104,17.67771307150077
279,8.8
9,10.0
278,-1.0
105,0.0
106,0.0
107,23.574525883992267
108,0.2182826470740025
109,3353719.4940681855
160,0.0
181,19.999999995047657
182,931.5887510737248
777,431.7161356858746
183,2.0
184,1.0
12,6975793.053251099
399,1583.117475929133
420,0.0
441,0.0
462,0.0
483,0.0
504,0.0
525,0.0
546,0.0
567,0.0
588,0.0
609,0.0
630,0.0
651,0.0
672,0.0
693,0.0
714,0.0
757,431.7161356858746
2,1, 7,21, 0,13, 0.00,60.00,WinterDesignDay
6,8.8
7,2.3
8,160.0
102,15.600298208304505
103,19.999999999968787
104,17.800149104136645
279,8.8
9,10.0
278,-1.0
105,0.0
106,0.0
107,23.581663626181418
108,0.21834873727945759
109,2054297.0396234955
160,0.0
181,19.999999999968787
182,570.6380665790716
777,370.3366529918392
183,2.0
184,1.0
12,5984005.7800954249
399,1358.0368646565425
420,0.0
441,0.0
462,0.0
483,0.0
504,0.0
525,0.0
546,0.0
567,0.0
588,0.0
609,0.0
630,0.0
651,0.0
672,0.0
693,0.0
714,0.0
757,370.3366529918392
2,1, 7,21, 0,14, 0.00,60.00,WinterDesignDay
6,8.8
7,2.3
8,160.0
102,15.797057956147599
103,19.999805641698836
104,17.89843179892322
279,8.8
9,10.0
278,-1.0
105,0.0
106,0.0
107,23.828517884914257
108,0.2206344248603172
109,1786659.4388294453
160,0.0
181,19.999805641698836
182,496.29422428050779
777,349.1304581459861
183,2.0
184,1.0
12,5641350.00593361
399,1280.2730405059997
420,0.0
441,0.0
462,0.0
483,0.0
504,0.0
525,0.0
546,0.0
567,0.0
588,0.0
609,0.0
630,0.0
651,0.0
672,0.0
693,0.0
714,0.0
757,349.1304581459861
2,1, 7,21, 0,15, 0.00,60.00,WinterDesignDay
6,8.8
7,2.3
8,160.0
102,15.966101015414092
103,19.99999852044511
104,17.983049767929605
279,8.8
9,10.0
278,-1.0
105,0.0
106,0.0
107,24.014062296597996
108,0.22235242867220368
109,1566915.5121897257
160,0.0
181,19.99999852044511
182,435.2551021254194
777,331.7224605311163
183,2.0
184,1.0
12,5360066.591219692
399,1216.437332347328
420,0.0
441,0.0
462,0.0
483,0.0
504,0.0
525,0.0
546,0.0
567,0.0
588,0.0
609,0.0
630,0.0
651,0.0
672,0.0
693,0.0
714,0.0
757,331.7224605311163
2,1, 7,21, 0,16, 0.00,60.00,WinterDesignDay
6,8.8
7,2.3
8,160.0
102,16.118407390111515
103,19.99999999860429
104,18.0592036943579
279,8.8
9,10.0
278,-1.0
105,0.0
106,0.0
107,24.189844971348366
108,0.2239800460310034
109,1372595.1519220225
160,0.0
181,19.99999999860429
182,381.2764318321051
777,316.32870686979057
183,2.0
184,1.0
12,5111329.907603422
399,1159.9879239816303
420,0.0
441,0.0
462,0.0
483,0.0
504,0.0
525,0.0
546,0.0
567,0.0
588,0.0
609,0.0
630,0.0
651,0.0
672,0.0
693,0.0
714,0.0
757,316.32870686979057
2,1, 7,21, 0,17, 0.00,60.00,WinterDesignDay
6,8.8
7,2.3
8,160.0
102,16.256444979816164
103,19.999999999999138
104,18.12822248990765
279,8.8
9,10.0
278,-1.0
105,0.0
106,0.0
107,24.369076897092158
108,0.22563960089900149
109,1200230.3738834148
160,0.0
181,19.999999999999138
182,333.39732607921226
777,302.67547631872028
183,2.0
184,1.0
12,4890717.095248658
399,1109.9210719425018
420,0.0
441,0.0
462,0.0
483,0.0
504,0.0
525,0.0
546,0.0
567,0.0
588,0.0
609,0.0
630,0.0
651,0.0
672,0.0
693,0.0
714,0.0
757,302.67547631872028
2,1, 7,21, 0,18, 0.00,60.00,WinterDesignDay
6,8.8
7,2.3
8,160.0
102,16.38163530862432
103,19.999694524899924
104,18.19066491676212
279,8.8
9,10.0
278,-1.0
105,0.0
106,0.0
107,24.530737067377755
108,0.2271364543275718
109,1046741.3078081085
160,0.0
181,19.999694524899924
182,290.7635919442548
777,290.51847996277868
183,2.0
184,1.0
12,4694280.863849881
399,1065.3409606262508
420,0.0
441,0.0
462,0.0
483,0.0
504,0.0
525,0.0
546,0.0
567,0.0
588,0.0
609,0.0
630,0.0
651,0.0
672,0.0
693,0.0
714,0.0
757,290.51847996277868
2,1, 7,21, 0,19, 0.00,60.00,WinterDesignDay
6,8.8
7,2.3
8,160.0
102,15.794690681593219
103,16.34427990640101
104,16.069485293997116
279,8.8
9,10.0
278,-1.0
105,0.0
106,0.0
107,22.13057428115949
108,0.2049127248255509
109,0.0
160,0.0
181,16.34427990640101
182,4789.185740172852
777,0.0
183,0.0
184,0.0
12,0.0
399,0.0
420,0.0
441,0.0
462,0.0
483,0.0
504,0.0
525,0.0
546,0.0
567,0.0
588,0.0
609,0.0
630,0.0
651,0.0
672,0.0
693,0.0
714,0.0
757,0.0
2,1, 7,21, 0,20, 0.00,60.00,WinterDesignDay
6,8.8
7,2.3
8,160.0
102,15.181703435605862
103,14.690354384522614
104,14.936028910064238
279,8.8
9,10.0
278,-1.0
105,0.0
106,0.0
107,20.748861514075544
108,0.19211908809329215
109,0.0
160,0.0
181,14.690354384522614
182,2783.7590778777694
777,0.0
183,0.0
184,0.0
12,0.0
399,0.0
420,0.0
441,0.0
462,0.0
483,0.0
504,0.0
525,0.0
546,0.0
567,0.0
588,0.0
609,0.0
630,0.0
651,0.0
672,0.0
693,0.0
714,0.0
757,0.0
2,1, 7,21, 0,21, 0.00,60.00,WinterDesignDay
6,8.8
7,2.3
8,160.0
102,14.896756663275767
103,14.445210667773536
104,14.670983665524652
279,8.8
9,10.0
278,-1.0
105,0.0
106,0.0
107,20.730942275909784
108,0.1919531692213869
109,0.0
160,0.0
181,14.445210667773536
182,2572.789136697209
777,0.0
183,0.0
184,0.0
12,0.0
399,0.0
420,0.0
441,0.0
462,0.0
483,0.0
504,0.0
525,0.0
546,0.0
567,0.0
588,0.0
609,0.0
630,0.0
651,0.0
672,0.0
693,0.0
714,0.0
757,0.0
2,1, 7,21, 0,22, 0.00,60.00,WinterDesignDay
6,8.8
7,2.3
8,160.0
102,14.65974844430648
103,14.21595058157321
104,14.437849512939846
279,8.8
9,10.0
278,-1.0
105,0.0
106,0.0
107,20.940188959700394
108,0.1938906385157444
109,0.0
160,0.0
181,14.21595058157321
182,2672.126204933148
777,0.0
183,0.0
184,0.0
12,0.0
399,0.0
420,0.0
441,0.0
462,0.0
483,0.0
504,0.0
525,0.0
546,0.0
567,0.0
588,0.0
609,0.0
630,0.0
651,0.0
672,0.0
693,0.0
714,0.0
757,0.0
2,1, 7,21, 0,23, 0.00,60.00,WinterDesignDay
6,8.8
7,2.3
8,160.0
102,14.433303857810837
103,14.00086342495793
104,14.21708364138438
279,8.8
9,10.0
278,-1.0
105,0.0
106,0.0
107,21.079858617220976
108,0.1951838760853794
109,0.0
160,0.0
181,14.00086342495793
182,2762.6929229721172
777,0.0
183,0.0
184,0.0
12,0.0
399,0.0
420,0.0
441,0.0
462,0.0
483,0.0
504,0.0
525,0.0
546,0.0
567,0.0
588,0.0
609,0.0
630,0.0
651,0.0
672,0.0
693,0.0
714,0.0
757,0.0
2,1, 7,21, 0,24, 0.00,60.00,WinterDesignDay
6,8.8
7,2.3
8,160.0
102,14.213715691559399
103,13.792753555420467
104,14.003234623489933
279,8.8
9,10.0
278,-1.0
105,0.0
106,0.0
107,21.185138572528659
108,0.19615869048637647
109,0.0
160,0.0
181,13.792753555420467
182,2849.4378284694903
777,0.0
183,0.0
184,0.0
12,0.0
399,0.0
420,0.0
441,0.0
462,0.0
483,0.0
504,0.0
525,0.0
546,0.0
567,0.0
588,0.0
609,0.0
630,0.0
651,0.0
672,0.0
693,0.0
714,0.0
757,0.0
1,SAO PAULO AEROPORTO ANN CLG 1% CONDNS DB=>MWB, -23.85, -46.64,  -3.00, 792.00
2,1, 2,21, 0, 1, 0.00,60.00,SummerDesignDay
6,23.882749999999999
7,3.4
8,330.0
102,28.659859543483806
103,28.049161640676826
104,28.354510592080318
279,26.85
9,9.0
278,-1.0
105,0.0
106,0.0
107,75.0996141039414
108,0.6953667972587169
109,0.0
160,0.0
181,28.049161640676826
182,-1406.8065264340744
777,0.0
183,0.0
184,0.0
12,0.0
399,0.0
420,0.0
441,0.0
462,0.0
483,0.0
504,0.0
525,0.0
546,0.0
567,0.0
588,0.0
609,0.0
630,0.0
651,0.0
672,0.0
693,0.0
714,0.0
757,0.0
2,1, 2,21, 0, 2, 0.00,60.00,SummerDesignDay
6,23.488500000000003
7,3.4
8,330.0
102,28.376850654980019
103,27.754032860031228
104,28.06544175750562
279,26.85
9,9.0
278,-1.0
105,0.0
106,0.0
107,75.08922831352933
108,0.6952706325326792
109,0.0
160,0.0
181,27.754032860031228
182,-1275.9126472458888
777,0.0
183,0.0
184,0.0
12,0.0
399,0.0
420,0.0
441,0.0
462,0.0
483,0.0
504,0.0
525,0.0
546,0.0
567,0.0
588,0.0
609,0.0
630,0.0
651,0.0
672,0.0
693,0.0
714,0.0
757,0.0
2,1, 2,21, 0, 3, 0.00,60.00,SummerDesignDay
6,23.208375
7,3.4
8,330.0
102,28.10897101459449
103,27.484173098880406
104,27.79657205673745
279,26.85
9,9.0
278,-1.0
105,0.0
106,0.0
107,75.06767531248991
108,0.69507106770824
109,0.0
160,0.0
181,27.484173098880406
182,-1152.6351119008837
777,0.0
183,0.0
184,0.0
12,0.0
399,0.0
420,0.0
441,0.0
462,0.0
483,0.0
504,0.0
525,0.0
546,0.0
567,0.0
588,0.0
609,0.0
630,0.0
651,0.0
672,0.0
693,0.0
714,0.0
757,0.0
2,1, 2,21, 0, 4, 0.00,60.00,SummerDesignDay
6,22.959374999999999
7,3.4
8,330.0
102,27.84848951906016
103,27.225114069449967
104,27.536801794255064
279,26.85
9,9.0
278,-1.0
105,0.0
106,0.0
107,75.0439897240211
108,0.6948517567038992
109,0.0
160,0.0
181,27.225114069449967
182,-1032.837673516648
777,0.0
183,0.0
184,0.0
12,0.0
399,0.0
420,0.0
441,0.0
462,0.0
483,0.0
504,0.0
525,0.0
546,0.0
567,0.0
588,0.0
609,0.0
630,0.0
651,0.0
672,0.0
693,0.0
714,0.0
757,0.0
2,1, 2,21, 0, 5, 0.00,60.00,SummerDesignDay
6,22.76225
7,3.4
8,330.0
102,27.59483931570796
103,26.97561703311098
104,27.285228174409473
279,26.85
9,9.0
278,-1.0
105,0.0
106,0.0
107,75.01476553371877
108,0.694581162349248
109,0.0
160,0.0
181,26.97561703311098
182,-916.9310244865201
777,0.0
183,0.0
184,0.0
12,0.0
399,0.0
420,0.0
441,0.0
462,0.0
483,0.0
504,0.0
525,0.0
546,0.0
567,0.0
588,0.0
609,0.0
630,0.0
651,0.0
672,0.0
693,0.0
714,0.0
757,0.0
2,1, 2,21, 0, 6, 0.00,60.00,SummerDesignDay
6,22.80375
7,3.4
8,330.0
102,27.371548787930224
103,26.771537420056906
104,27.071543103993567
279,26.85
9,9.0
278,-1.0
105,0.0
106,0.0
107,74.960135441802
108,0.6940753281648333
109,0.0
160,0.0
181,26.771537420056906
182,-819.8268895756873
777,0.0
183,0.0
184,0.0
12,0.0
399,0.0
420,0.0
441,0.0
462,0.0
483,0.0
504,0.0
525,0.0
546,0.0
567,0.0
588,0.0
609,0.0
630,0.0
651,0.0
672,0.0
693,0.0
714,0.0
757,0.0
2,1, 2,21, 0, 7, 0.00,60.00,SummerDesignDay
6,23.229125
7,3.4
8,330.0
102,29.33941993514782
103,28.126894868019684
104,28.733157401583754
279,26.85
9,9.0
278,-1.0
105,0.0
106,0.0
107,75.28000524276821
108,0.6970370855811872
109,0.0
160,0.0
181,28.126894868019684
182,-3714.69899353046
777,0.0
183,0.0
184,0.0
12,0.0
399,0.0
420,0.0
441,0.0
462,0.0
483,0.0
504,0.0
525,0.0
546,0.0
567,0.0
588,0.0
609,0.0
630,0.0
651,0.0
672,0.0
693,0.0
714,0.0
757,0.0
2,1, 2,21, 0, 8, 0.00,60.00,SummerDesignDay
6,24.328875
7,3.4
8,330.0
102,32.651350285551227
103,25.42950158756627
104,29.040425936558749
279,26.85
9,9.0
278,0.75
105,0.0
106,0.0
107,74.47242553239573
108,0.6895594956703309
109,0.0
160,12735249.64025779
181,25.42950158756627
182,-4409.613554322543
777,497.69668040519539
183,1.975
184,1.0
12,8041925.605307622
399,1825.0703351859017
420,0.0
441,0.0
462,0.0
483,0.0
504,0.0
525,0.0
546,0.0
567,0.0
588,0.0
609,0.0
630,0.0
651,0.0
672,0.0
693,0.0
714,0.0
757,497.69668040519539
2,1, 2,21, 0, 9, 0.00,60.00,SummerDesignDay
6,25.843625
7,3.4
8,330.0
102,33.21665370993324
103,25.08359495996348
104,29.15012433494836
279,26.85
9,9.0
278,1.0
105,0.0
106,0.0
107,74.1035149878241
108,0.6861436572946678
109,0.0
160,13967531.141390814
181,25.08359495996348
182,-3932.1995569012324
777,506.55199352942238
183,2.0
184,1.0
12,8185012.29276304
399,1857.5430639142735
420,0.0
441,0.0
462,0.0
483,0.0
504,0.0
525,0.0
546,0.0
567,0.0
588,0.0
609,0.0
630,0.0
651,0.0
672,0.0
693,0.0
714,0.0
757,506.55199352942238
2,1, 2,21, 0,10, 0.00,60.00,SummerDesignDay
6,27.316875
7,3.4
8,330.0
102,33.48606858930783
103,25.303013278415145
104,29.39454093386149
279,26.85
9,9.0
278,1.0
105,0.0
106,0.0
107,73.90738210330493
108,0.6843276120676382
109,0.0
160,14071427.460356076
181,25.303013278415145
182,-4098.8449147146475
777,509.97231720166845
183,2.0
184,1.0
12,8240278.86294768
399,1870.0855049566135
420,0.0
441,0.0
462,0.0
483,0.0
504,0.0
525,0.0
546,0.0
567,0.0
588,0.0
609,0.0
630,0.0
651,0.0
672,0.0
693,0.0
714,0.0
757,509.97231720166845
2,1, 2,21, 0,11, 0.00,60.00,SummerDesignDay
6,28.624125
7,3.4
8,330.0
102,33.24502735402949
103,25.255237473227966
104,29.250132413628728
279,26.85
9,9.0
278,1.0
105,0.0
106,0.0
107,73.66671282659292
108,0.6820991928388235
109,0.0
160,13737228.166970469
181,25.255237473227966
182,-3975.5159842865023
777,514.146105930251
183,2.0
184,1.0
12,8307720.137460914
399,1885.3909275036708
420,0.0
441,0.0
462,0.0
483,0.0
504,0.0
525,0.0
546,0.0
567,0.0
588,0.0
609,0.0
630,0.0
651,0.0
672,0.0
693,0.0
714,0.0
757,514.146105930251
2,1, 2,21, 0,12, 0.00,60.00,SummerDesignDay
6,29.60975
7,3.4
8,330.0
102,32.5404588885811
103,25.01257448180476
104,28.776516685192929
279,26.85
9,9.0
278,1.0
105,0.0
106,0.0
107,73.42856034647714
108,0.679894077282196
109,0.0
160,12100533.73552581
181,25.01257448180476
182,-3369.075652241221
777,447.3725870686726
183,2.0
184,1.0
12,7228774.481941904
399,1640.5302056056935
420,0.0
441,0.0
462,0.0
483,0.0
504,0.0
525,0.0
546,0.0
567,0.0
588,0.0
609,0.0
630,0.0
651,0.0
672,0.0
693,0.0
714,0.0
757,447.3725870686726
2,1, 2,21, 0,13, 0.00,60.00,SummerDesignDay
6,30.336
7,3.4
8,330.0
102,32.175727341653708
103,25.17654157914354
104,28.676134460398627
279,26.85
9,9.0
278,1.0
105,0.009000000000000001
106,0.009000000000000001
107,79.7374506946573
108,0.7383097286542343
109,0.0
160,11957413.522318205
181,25.17654157914354
182,-3938.1356468158306
777,491.3842926256868
183,1.9666666666666666
184,1.0
12,7939928.234392203
399,1801.9225985540404
420,0.0
441,0.0
462,0.0
483,0.0
504,0.0
525,0.0
546,0.0
567,0.0
588,0.0
609,0.0
630,0.0
651,0.0
672,0.0
693,0.0
714,0.0
757,491.3842926256868
2,1, 2,21, 0,14, 0.00,60.00,SummerDesignDay
6,30.844375
7,3.4
8,330.0
102,31.860500559225245
103,25.15301757529351
104,28.506759067259379
279,26.85
9,9.0
278,1.0
105,0.009000000000000001
106,0.009000000000000001
107,79.62589583368617
108,0.7372768132748719
109,0.0
160,11529903.522246849
181,25.15301757529351
182,-3739.945853350673
777,488.59428466824365
183,1.9666666666666666
184,1.0
12,7894846.486180207
399,1791.6915462715206
420,0.0
441,0.0
462,0.0
483,0.0
504,0.0
525,0.0
546,0.0
567,0.0
588,0.0
609,0.0
630,0.0
651,0.0
672,0.0
693,0.0
714,0.0
757,488.59428466824365
2,1, 2,21, 0,15, 0.00,60.00,SummerDesignDay
6,31.0
7,3.4
8,330.0
102,31.714144557457869
103,25.14396353537598
104,28.429054046416924
279,26.85
9,9.0
278,1.0
105,0.009000000000000001
106,0.009000000000000001
107,79.58833374813504
108,0.7369290161864356
109,0.0
160,11293207.070784396
181,25.14396353537598
182,-3643.3895901091937
777,485.50022850464895
183,1.9666666666666666
184,1.0
12,7844851.839910886
399,1780.3455390709528
420,0.0
441,0.0
462,0.0
483,0.0
504,0.0
525,0.0
546,0.0
567,0.0
588,0.0
609,0.0
630,0.0
651,0.0
672,0.0
693,0.0
714,0.0
757,485.50022850464895
2,1, 2,21, 0,16, 0.00,60.00,SummerDesignDay
6,30.68875
7,3.4
8,330.0
102,31.481081309952708
103,25.238600988148325
104,28.359841149050515
279,26.85
9,9.0
278,1.0
105,0.018000000000000003
106,0.018000000000000003
107,86.0433734319117
108,0.7966979021473306
109,0.0
160,10777490.951517733
181,25.238600988148325
182,-3882.3814016921356
777,472.5355334579061
183,1.9333333333333332
184,1.0
12,7635364.581574096
399,1732.8035697026262
420,0.0
441,0.0
462,0.0
483,0.0
504,0.0
525,0.0
546,0.0
567,0.0
588,0.0
609,0.0
630,0.0
651,0.0
672,0.0
693,0.0
714,0.0
757,472.5355334579061
2,1, 2,21, 0,17, 0.00,60.00,SummerDesignDay
6,30.087000000000005
7,3.4
8,330.0
102,31.15722321909958
103,25.177509297023396
104,28.167366258061489
279,26.85
9,9.0
278,1.0
105,0.013500000000000002
106,0.013500000000000002
107,82.94508126745376
108,0.768010011735683
109,0.0
160,10067008.13598042
181,25.177509297023396
182,-3243.0689733242925
777,456.9180966258963
183,1.95
184,1.0
12,7383013.5611767689
399,1675.5339076857217
420,0.0
441,0.0
462,0.0
483,0.0
504,0.0
525,0.0
546,0.0
567,0.0
588,0.0
609,0.0
630,0.0
651,0.0
672,0.0
693,0.0
714,0.0
757,456.9180966258963
2,1, 2,21, 0,18, 0.00,60.00,SummerDesignDay
6,29.31925
7,3.4
8,330.0
102,30.62994315354213
103,25.084478073755773
104,27.85721061364895
279,26.85
9,9.0
278,1.0
105,0.013500000000000002
106,0.013500000000000002
107,83.08697399004959
108,0.7693238332411998
109,0.0
160,9422870.800238396
181,25.084478073755773
182,-2938.2465977259717
777,438.88169905226968
183,1.95
184,1.0
12,7091576.2798254699
399,1609.3938359085796
420,0.0
441,0.0
462,0.0
483,0.0
504,0.0
525,0.0
546,0.0
567,0.0
588,0.0
609,0.0
630,0.0
651,0.0
672,0.0
693,0.0
714,0.0
757,438.88169905226968
2,1, 2,21, 0,19, 0.00,60.00,SummerDesignDay
6,28.229875
7,3.4
8,330.0
102,30.212133686230904
103,29.071989684486824
104,29.64206168535886
279,26.85
9,9.0
278,-1.0
105,0.0675
106,0.0675
107,122.99410855780546
108,1.138834338498199
109,0.0
160,0.0
181,29.071989684486824
182,-5385.617674449906
777,0.0
183,0.0
184,0.0
12,0.0
399,0.0
420,0.0
441,0.0
462,0.0
483,0.0
504,0.0
525,0.0
546,0.0
567,0.0
588,0.0
609,0.0
630,0.0
651,0.0
672,0.0
693,0.0
714,0.0
757,0.0
2,1, 2,21, 0,20, 0.00,60.00,SummerDesignDay
6,27.192375
7,3.4
8,330.0
102,30.10644821929695
103,29.70800112325689
104,29.90722467127692
279,26.85
9,9.0
278,-1.0
105,0.0
106,0.0
107,75.00351052487133
108,0.6944769493043643
109,0.0
160,0.0
181,29.70800112325689
182,-2040.2398635574
777,0.0
183,0.0
184,0.0
12,0.0
399,0.0
420,0.0
441,0.0
462,0.0
483,0.0
504,0.0
525,0.0
546,0.0
567,0.0
588,0.0
609,0.0
630,0.0
651,0.0
672,0.0
693,0.0
714,0.0
757,0.0
2,1, 2,21, 0,21, 0.00,60.00,SummerDesignDay
6,26.383125
7,3.4
8,330.0
102,29.8361987603882
103,29.347994529352705
104,29.592096644870453
279,26.85
9,9.0
278,-1.0
105,0.0
106,0.0
107,75.03442250688154
108,0.6947631713600144
109,0.0
160,0.0
181,29.347994529352705
182,-1934.3103589692241
777,0.0
183,0.0
184,0.0
12,0.0
399,0.0
420,0.0
441,0.0
462,0.0
483,0.0
504,0.0
525,0.0
546,0.0
567,0.0
588,0.0
609,0.0
630,0.0
651,0.0
672,0.0
693,0.0
714,0.0
757,0.0
2,1, 2,21, 0,22, 0.00,60.00,SummerDesignDay
6,25.636125
7,3.4
8,330.0
102,29.549283228639874
103,29.01865160301748
104,29.283967415828678
279,26.85
9,9.0
278,-1.0
105,0.0
106,0.0
107,75.06638701032533
108,0.6950591389844939
109,0.0
160,0.0
181,29.01865160301748
182,-1810.22316917447
777,0.0
183,0.0
184,0.0
12,0.0
399,0.0
420,0.0
441,0.0
462,0.0
483,0.0
504,0.0
525,0.0
546,0.0
567,0.0
588,0.0
609,0.0
630,0.0
651,0.0
672,0.0
693,0.0
714,0.0
757,0.0
2,1, 2,21, 0,23, 0.00,60.00,SummerDesignDay
6,24.992874999999999
7,3.4
8,330.0
102,29.257863507705566
103,28.693519827102415
104,28.97569166740399
279,26.85
9,9.0
278,-1.0
105,0.0
106,0.0
107,75.08521688738778
108,0.6952334896980351
109,0.0
160,0.0
181,28.693519827102415
182,-1681.2019441729121
777,0.0
183,0.0
184,0.0
12,0.0
399,0.0
420,0.0
441,0.0
462,0.0
483,0.0
504,0.0
525,0.0
546,0.0
567,0.0
588,0.0
609,0.0
630,0.0
651,0.0
672,0.0
693,0.0
714,0.0
757,0.0
2,1, 2,21, 0,24, 0.00,60.00,SummerDesignDay
6,24.411875
7,3.4
8,330.0
102,28.967509195637093
103,28.37757863153864
104,28.672543913587867
279,26.85
9,9.0
278,-1.0
105,0.0
106,0.0
107,75.0975425265487
108,0.6953476159865621
109,0.0
160,0.0
181,28.37757863153864
182,-1548.8878478658075
777,0.0
183,0.0
184,0.0
12,0.0
399,0.0
420,0.0
441,0.0
462,0.0
483,0.0
504,0.0
525,0.0
546,0.0
567,0.0
588,0.0
609,0.0
630,0.0
651,0.0
672,0.0
693,0.0
714,0.0
757,0.0
1,SAO PAULO AEROPORTO ANN CLG 1% CONDNS WB=>MDB, -23.85, -46.64,  -3.00, 792.00
2,1, 2,21, 0, 1, 0.00,60.00,SummerDesignDay
6,19.982750000000004
7,3.4
8,330.0
102,26.951561543280059
103,26.144311188563365
104,26.54793636592171
279,22.950000000000004
9,9.0
278,-1.0
105,0.0
106,0.0
107,75.38556645473973
108,0.6980145042105532
109,0.0
160,0.0
181,26.144311188563365
182,-551.4040139265039
777,0.0
183,0.0
184,0.0
12,0.0
399,0.0
420,0.0
441,0.0
462,0.0
483,0.0
504,0.0
525,0.0
546,0.0
567,0.0
588,0.0
609,0.0
630,0.0
651,0.0
672,0.0
693,0.0
714,0.0
757,0.0
2,1, 2,21, 0, 2, 0.00,60.00,SummerDesignDay
6,19.5885
7,3.4
8,330.0
102,26.59928007039207
103,25.785762598474578
104,26.19252133443332
279,22.950000000000004
9,9.0
278,-1.0
105,0.0
106,0.0
107,75.34277246960483
108,0.6976182636074522
109,0.0
160,0.0
181,25.785762598474578
182,-379.57160384372676
777,0.0
183,0.0
184,0.0
12,0.0
399,0.0
420,0.0
441,0.0
462,0.0
483,0.0
504,0.0
525,0.0
546,0.0
567,0.0
588,0.0
609,0.0
630,0.0
651,0.0
672,0.0
693,0.0
714,0.0
757,0.0
2,1, 2,21, 0, 3, 0.00,60.00,SummerDesignDay
6,19.308375
7,3.4
8,330.0
102,26.264761799205968
103,25.45434248366709
104,25.85955214143653
279,22.950000000000004
9,9.0
278,-1.0
105,0.0
106,0.0
107,75.29746377555088
108,0.6971987386625083
109,0.0
160,0.0
181,25.45434248366709
182,-219.5717966965417
777,0.0
183,0.0
184,0.0
12,0.0
399,0.0
420,0.0
441,0.0
462,0.0
483,0.0
504,0.0
525,0.0
546,0.0
567,0.0
588,0.0
609,0.0
630,0.0
651,0.0
672,0.0
693,0.0
714,0.0
757,0.0
2,1, 2,21, 0, 4, 0.00,60.00,SummerDesignDay
6,19.059375000000004
7,3.4
8,330.0
102,25.940012424593875
103,25.135800628658573
104,25.537906526626224
279,22.950000000000004
9,9.0
278,-1.0
105,0.0
106,0.0
107,75.25156658862054
108,0.6967737647094494
109,0.0
160,0.0
181,25.135800628658573
182,-65.60233919513348
777,0.0
183,0.0
184,0.0
12,0.0
399,0.0
420,0.0
441,0.0
462,0.0
483,0.0
504,0.0
525,0.0
546,0.0
567,0.0
588,0.0
609,0.0
630,0.0
651,0.0
672,0.0
693,0.0
714,0.0
757,0.0
2,1, 2,21, 0, 5, 0.00,60.00,SummerDesignDay
6,18.86225
7,3.4
8,330.0
102,25.624393028753578
103,24.82893052236932
104,25.226661775561447
279,22.950000000000004
9,9.0
278,-1.0
105,0.0
106,0.0
107,75.2033276096636
108,0.6963271074968853
109,0.0
160,0.0
181,24.82893052236932
182,0.0
777,0.0
183,0.0
184,0.0
12,0.0
399,0.0
420,0.0
441,0.0
462,0.0
483,0.0
504,0.0
525,0.0
546,0.0
567,0.0
588,0.0
609,0.0
630,0.0
651,0.0
672,0.0
693,0.0
714,0.0
757,0.0
2,1, 2,21, 0, 6, 0.00,60.00,SummerDesignDay
6,18.903750000000004
7,3.4
8,330.0
102,25.34201516200497
103,24.56960791960558
104,24.95581154080527
279,22.950000000000004
9,9.0
278,-1.0
105,0.0
106,0.0
107,75.14435915644731
108,0.6957811033004381
109,0.0
160,0.0
181,24.56960791960558
182,0.0
777,0.0
183,0.0
184,0.0
12,0.0
399,0.0
420,0.0
441,0.0
462,0.0
483,0.0
504,0.0
525,0.0
546,0.0
567,0.0
588,0.0
609,0.0
630,0.0
651,0.0
672,0.0
693,0.0
714,0.0
757,0.0
2,1, 2,21, 0, 7, 0.00,60.00,SummerDesignDay
6,19.329125
7,3.4
8,330.0
102,27.265408480778537
103,25.874654419573628
104,26.57003145017608
279,22.950000000000004
9,9.0
278,-1.0
105,0.0
106,0.0
107,75.49483978838487
108,0.6990262943368969
109,0.0
160,0.0
181,25.874654419573628
182,-1446.1336014722708
777,0.0
183,0.0
184,0.0
12,0.0
399,0.0
420,0.0
441,0.0
462,0.0
483,0.0
504,0.0
525,0.0
546,0.0
567,0.0
588,0.0
609,0.0
630,0.0
651,0.0
672,0.0
693,0.0
714,0.0
757,0.0
2,1, 2,21, 0, 8, 0.00,60.00,SummerDesignDay
6,20.428875
7,3.4
8,330.0
102,30.993509594947854
103,25.285122031264913
104,28.139315813106383
279,22.950000000000004
9,9.0
278,0.75
105,0.0
106,0.0
107,75.26794493175354
108,0.696925416034755
109,0.0
160,8948070.639407438
181,25.285122031264913
182,-2774.5720963959043
777,446.2008601361541
183,1.95
184,1.0
12,7209841.382341205
399,1636.233443843616
420,0.0
441,0.0
462,0.0
483,0.0
504,0.0
525,0.0
546,0.0
567,0.0
588,0.0
609,0.0